14
Properties=species:S:1:pos:R:3:forces:R:3 Energy=energy=-34426.502493122214 stress="-inf -inf inf -inf inf -inf inf -inf -inf" free_energy=-34426.50249312219 energy=-34426.50249312219 pbc="F F F"
Cl       6.58441460       4.55147029      -0.73213160      -0.00051713      -0.00059180       0.00037059
C        7.22613888       2.92475280      -1.15615054      -0.00183857       0.00133221       0.00027725
O        8.26047640       2.83807983      -1.71760903       0.00440391      -0.00081578      -0.00133575
C        6.32820795       1.81156164      -0.73858838       0.00014923       0.00047556       0.00219704
C        6.84091942       0.60291899      -0.26340026      -0.00112923      -0.00237470      -0.00262938
C        4.94888014       1.95182749      -0.87224318      -0.00025995       0.00076909       0.00146717
Cl       8.53596762       0.36076254      -0.00865258       0.00038660       0.00171639       0.00044083
C        5.98491157      -0.43771878       0.06410195      -0.00137590      -0.00026326      -0.00003375
C        4.09626608       0.90786856      -0.56764777      -0.00075608       0.00058357       0.00004457
C        4.61849544      -0.28764309      -0.09710481      -0.00119682      -0.00027396      -0.00154854
H        4.55311143       2.88982445      -1.22821449       0.00068555       0.00032310      -0.00050271
H        6.40119019      -1.35712276       0.44513292      -0.00046476       0.00042776      -0.00050388
H        3.03079751       1.02954950      -0.69030359       0.00002352      -0.00215297      -0.00044026
H        3.96092267      -1.10743145       0.15241157       0.00188965       0.00084480       0.00219681
